 Entering Gaussian System, Link 0=/g09/g09
 Initial command:
 /g09/l1.exe /scratch_0/calcuser/webmo-8667/24457/Gau-28973.inp -scrdir=/scratch_0/calcuser/webmo-8667/24457/
 Entering Link 1 = /g09/l1.exe PID=     28974.
  
 Copyright (c) 1988,1990,1992,1993,1995,1998,2003,2009,2010,
            Gaussian, Inc.  All Rights Reserved.
  
 This is part of the Gaussian(R) 09 program.  It is based on
 the Gaussian(R) 03 system (copyright 2003, Gaussian, Inc.),
 the Gaussian(R) 98 system (copyright 1998, Gaussian, Inc.),
 the Gaussian(R) 94 system (copyright 1995, Gaussian, Inc.),
 the Gaussian 92(TM) system (copyright 1992, Gaussian, Inc.),
 the Gaussian 90(TM) system (copyright 1990, Gaussian, Inc.),
 the Gaussian 88(TM) system (copyright 1988, Gaussian, Inc.),
 the Gaussian 86(TM) system (copyright 1986, Carnegie Mellon
 University), and the Gaussian 82(TM) system (copyright 1983,
 Carnegie Mellon University). Gaussian is a federally registered
 trademark of Gaussian, Inc.
  
 This software contains proprietary and confidential information,
 including trade secrets, belonging to Gaussian, Inc.
  
 This software is provided under written license and may be
 used, copied, transmitted, or stored only in accord with that
 written license.
  
 The following legend is applicable only to US Government
 contracts under FAR:
  
                    RESTRICTED RIGHTS LEGEND
  
 Use, reproduction and disclosure by the US Government is
 subject to restrictions as set forth in subparagraphs (a)
 and (c) of the Commercial Computer Software - Restricted
 Rights clause in FAR 52.227-19.
  
 Gaussian, Inc.
 340 Quinnipiac St., Bldg. 40, Wallingford CT 06492
  
  
 ---------------------------------------------------------------
 Warning -- This program may not be used in any manner that
 competes with the business of Gaussian, Inc. or will provide
 assistance to any competitor of Gaussian, Inc.  The licensee
 of this program is prohibited from giving any competitor of
 Gaussian, Inc. access to this program.  By using this program,
 the user acknowledges that Gaussian, Inc. is engaged in the
 business of creating and licensing software in the field of
 computational chemistry and represents and warrants to the
 licensee that it is not a competitor of Gaussian, Inc. and that
 it will not use this program in any manner prohibited above.
 ---------------------------------------------------------------
  

 Cite this work as:
 Gaussian 09, Revision B.01,
 M. J. Frisch, G. W. Trucks, H. B. Schlegel, G. E. Scuseria, 
 M. A. Robb, J. R. Cheeseman, G. Scalmani, V. Barone, B. Mennucci, 
 G. A. Petersson, H. Nakatsuji, M. Caricato, X. Li, H. P. Hratchian, 
 A. F. Izmaylov, J. Bloino, G. Zheng, J. L. Sonnenberg, M. Hada, 
 M. Ehara, K. Toyota, R. Fukuda, J. Hasegawa, M. Ishida, T. Nakajima, 
 Y. Honda, O. Kitao, H. Nakai, T. Vreven, J. A. Montgomery, Jr., 
 J. E. Peralta, F. Ogliaro, M. Bearpark, J. J. Heyd, E. Brothers, 
 K. N. Kudin, V. N. Staroverov, T. Keith, R. Kobayashi, J. Normand, 
 K. Raghavachari, A. Rendell, J. C. Burant, S. S. Iyengar, J. Tomasi, 
 M. Cossi, N. Rega, J. M. Millam, M. Klene, J. E. Knox, J. B. Cross, 
 V. Bakken, C. Adamo, J. Jaramillo, R. Gomperts, R. E. Stratmann, 
 O. Yazyev, A. J. Austin, R. Cammi, C. Pomelli, J. W. Ochterski, 
 R. L. Martin, K. Morokuma, V. G. Zakrzewski, G. A. Voth, 
 P. Salvador, J. J. Dannenberg, S. Dapprich, A. D. Daniels, 
 O. Farkas, J. B. Foresman, J. V. Ortiz, J. Cioslowski, 
 and D. J. Fox, Gaussian, Inc., Wallingford CT, 2010.
 
 ******************************************
 Gaussian 09:  EM64L-G09RevB.01 12-Aug-2010
                26-Feb-2024 
 ******************************************
 %CHK=output.chk
 ---------------------------------------
 #N CCSD(T)/cc-pVTZ SP Geom=Connectivity
 ---------------------------------------
 1/38=1,57=2/1;
 2/12=2,17=6,18=5,40=1/2;
 3/5=16,6=1,11=9,16=1,25=1,30=1/1,2,3;
 4//1;
 5/5=2,38=5/2;
 8/6=4,9=120000,10=1/1,4;
 9/5=7,14=2/13;
 6/7=2,8=2,9=2,10=2/1;
 99/5=1,9=1/99;
 ---
 H2+
 ---
 Symbolic Z-matrix:
 Charge =  1 Multiplicity = 2
 H
 H                    1    B1
       Variables:
  B1                    0.7                      
 
                          Input orientation:                          
 ---------------------------------------------------------------------
 Center     Atomic      Atomic             Coordinates (Angstroms)
 Number     Number       Type             X           Y           Z
 ---------------------------------------------------------------------
      1          1           0        0.000000    0.000000    0.000000
      2          1           0        0.000000    0.000000    0.700000
 ---------------------------------------------------------------------
 Stoichiometry    H2(1+,2)
 Framework group  D*H[C*(H.H)]
 Deg. of freedom     1
 Full point group                 D*H     NOp   8
 Largest Abelian subgroup         D2H     NOp   8
 Largest concise Abelian subgroup C2      NOp   2
                         Standard orientation:                         
 ---------------------------------------------------------------------
 Center     Atomic      Atomic             Coordinates (Angstroms)
 Number     Number       Type             X           Y           Z
 ---------------------------------------------------------------------
      1          1           0        0.000000    0.000000    0.350000
      2          1           0        0.000000    0.000000   -0.350000
 ---------------------------------------------------------------------
 Rotational constants (GHZ):      0.0000000   2046.7555114   2046.7555114
 Standard basis: CC-pVTZ (5D, 7F)
 There are     7 symmetry adapted basis functions of AG  symmetry.
 There are     1 symmetry adapted basis functions of B1G symmetry.
 There are     3 symmetry adapted basis functions of B2G symmetry.
 There are     3 symmetry adapted basis functions of B3G symmetry.
 There are     1 symmetry adapted basis functions of AU  symmetry.
 There are     7 symmetry adapted basis functions of B1U symmetry.
 There are     3 symmetry adapted basis functions of B2U symmetry.
 There are     3 symmetry adapted basis functions of B3U symmetry.
 Integral buffers will be    131072 words long.
 Raffenetti 2 integral format.
 Two-electron integral symmetry is turned on.
    28 basis functions,    34 primitive gaussians,    30 cartesian basis functions
     1 alpha electrons        0 beta electrons
       nuclear repulsion energy         0.7559674408 Hartrees.
 NAtoms=    2 NActive=    2 NUniq=    1 SFac= 4.00D+00 NAtFMM=   50 NAOKFM=F Big=F
 One-electron integrals computed using PRISM.
 NBasis=    28 RedAO= T  NBF=     7     1     3     3     1     7     3     3
 NBsUse=    28 1.00D-06 NBFU=     7     1     3     3     1     7     3     3
 Harris functional with IExCor=  205 diagonalized for initial guess.
 ExpMin= 1.03D-01 ExpMax= 3.39D+01 ExpMxC= 3.39D+01 IAcc=1 IRadAn=         1 AccDes= 0.00D+00
 HarFok:  IExCor=  205 AccDes= 0.00D+00 IRadAn=         1 IDoV= 1
 ScaDFX=  1.000000  1.000000  1.000000  1.000000
 FoFCou: FMM=F IPFlag=           0 FMFlag=      100000 FMFlg1=           0
         NFxFlg=           0 DoJE=T BraDBF=F KetDBF=T FulRan=T
         Omega=  0.000000  0.000000  1.000000  0.000000  0.000000 ICntrl=     500 IOpCl=  0
         NMat0=    1 NMatS0=    1 NMatT0=    0 NMatD0=    1 NMtDS0=    0 NMtDT0=    0
         I1Cent=           4 NGrid=           0.
 Petite list used in FoFCou.
 Initial guess orbital symmetries:
 Alpha Orbitals:
       Occupied  (SGG)
       Virtual   (SGU) (SGG) (SGU) (PIU) (PIU) (SGG) (PIG) (PIG)
                 (SGU) (SGU) (SGG) (DLTG) (DLTG) (PIU) (PIU) (SGG)
                 (PIG) (PIG) (DLTU) (DLTU) (PIU) (PIU) (SGU) (PIG)
                 (PIG) (SGG) (SGU)
 Beta  Orbitals:
       Virtual   (SGG) (SGU) (SGG) (SGU) (PIU) (PIU) (SGG) (PIG)
                 (PIG) (SGU) (SGU) (SGG) (DLTG) (DLTG) (PIU) (PIU)
                 (SGG) (PIG) (PIG) (DLTU) (DLTU) (PIU) (PIU) (SGU)
                 (PIG) (PIG) (SGG) (SGU)
 The electronic state of the initial guess is 2-SGG.
 Initial guess <Sx>= 0.0000 <Sy>= 0.0000 <Sz>= 0.5000 <S**2>= 0.7500 S= 0.5000
 Requested convergence on RMS density matrix=1.00D-08 within 128 cycles.
 Requested convergence on MAX density matrix=1.00D-06.
 Requested convergence on             energy=1.00D-06.
 No special actions if energy rises.
 Keep R1 and R2 ints in memory in canonical form, NReq=1058073.
 SCF Done:  E(UHF) = -0.556518193591     A.U. after    6 cycles
             Convg  =    0.2863D-08             -V/T =  1.6921
 <Sx>= 0.0000 <Sy>= 0.0000 <Sz>= 0.5000 <S**2>= 0.7500 S= 0.5000
 <L.S>=  0.00000000000    
 Annihilation of the first spin contaminant:
 S**2 before annihilation     0.7500,   after     0.7500
 Range of M.O.s used for correlation:     1    28
 NBasis=    28 NAE=     1 NBE=     0 NFC=     0 NFV=     0
 NROrb=     28 NOA=     1 NOB=     0 NVA=    27 NVB=    28
 *** There is no correlation energy for this system ***

 **** Warning!!: The largest alpha MO coefficient is  0.15249725D+02


 **** Warning!!: The largest beta MO coefficient is  0.15214043D+02

 Semi-Direct transformation.
 ModeAB=           4 MOrb=             1 LenV=      33379815
 LASXX=         1440 LTotXX=        1440 LenRXX=        3130
 LTotAB=        1690 MaxLAS=        7896 LenRXY=           0
 NonZer=        4570 LenScr=      785920 LnRSAI=        7896
 LnScr1=      785920 LExtra=           0 Total=      1582866
 MaxDsk=          -1 SrtSym=           T ITran=            4
 JobTyp=1 Pass  1:  I=   1 to   1.
 (rs|ai) integrals will be sorted in core.
 Spin components of T(2) and E(2):
     alpha-alpha T2 =       0.0000000000D+00 E2=      0.0000000000D+00
     alpha-beta  T2 =       0.0000000000D+00 E2=      0.0000000000D+00
     beta-beta   T2 =       0.0000000000D+00 E2=      0.0000000000D+00
 ANorm=    0.1000000000D+01
 E2 =     0.0000000000D+00 EUMP2 =    -0.55651819359087D+00
 R2 and R3 integrals will be kept in memory, NReq=     1036690.
 Iterations=  50 Convergence= 0.100D-06
 Iteration Nr.   1
 **********************
 MP4(R+Q)=  0.00000000D+00
 E3=        0.00000000D+00        EUMP3=      -0.55651819359D+00
 E4(DQ)=    0.00000000D+00        UMP4(DQ)=   -0.55651819359D+00
 E4(SDQ)=   0.00000000D+00        UMP4(SDQ)=  -0.55651819359D+00
 DE(Corr)=   0.0000000     E(Corr)=    -0.55651819359    
 NORM(A)=   0.10000000D+01
 Iteration Nr.   2
 **********************
 DE(Corr)=   0.0000000     E(CORR)=    -0.55651819359     Delta= 0.00D+00
 NORM(A)=   0.10000000D+01
 Largest amplitude= 0.00D+00
 Time for triples=        0.00 seconds.
 T4(CCSD)=  0.00000000D+00
 T5(CCSD)=  0.00000000D+00
 CCSD(T)= -0.55651819359D+00

 S**2, projected HF & approx projected MPn energies after annihilation of
 unwanted spin states (see manual for definitions):

 spins       (S**2,0) (S**2,1)    PUHF        PMP2        PMP3        PMP4
 annihilated


 **********************************************************************

            Population analysis using the SCF density.

 **********************************************************************

 Orbital symmetries:
 Alpha Orbitals:
       Occupied  (SGG)
       Virtual   (SGU) (SGG) (PIU) (PIU) (SGU) (SGG) (PIG) (PIG)
                 (SGU) (SGG) (SGU) (DLTG) (DLTG) (PIU) (PIU) (SGG)
                 (PIG) (PIG) (DLTU) (DLTU) (PIU) (PIU) (SGU) (PIG)
                 (PIG) (SGG) (SGU)
 Beta  Orbitals:
       Virtual   (SGG) (SGU) (SGG) (PIU) (PIU) (SGU) (SGG) (PIG)
                 (PIG) (SGU) (SGU) (SGG) (DLTG) (DLTG) (PIU) (PIU)
                 (SGG) (PIG) (PIG) (DLTU) (DLTU) (PIU) (PIU) (SGU)
                 (PIG) (PIG) (SGG) (SGU)
 The electronic state is 2-SGG.
 Alpha  occ. eigenvalues --   -1.31249
 Alpha virt. eigenvalues --   -0.18855  -0.05170   0.19318   0.19318   0.20761
 Alpha virt. eigenvalues --    0.65231   0.68318   0.68318   1.14209   1.75166
 Alpha virt. eigenvalues --    1.75257   2.57394   2.57394   2.75767   2.75767
 Alpha virt. eigenvalues --    3.08039   3.28520   3.28520   3.54967   3.54967
 Alpha virt. eigenvalues --    3.56623   3.56623   4.21287   5.26706   5.26706
 Alpha virt. eigenvalues --    5.34760   6.50555
  Beta virt. eigenvalues --   -0.55286  -0.13172   0.00509   0.27350   0.27350
  Beta virt. eigenvalues --    0.28986   0.69372   0.70620   0.70620   1.15098
  Beta virt. eigenvalues --    1.85183   1.87121   2.62601   2.62601   2.86308
  Beta virt. eigenvalues --    2.86308   3.14927   3.32805   3.32805   3.57885
  Beta virt. eigenvalues --    3.57885   3.60038   3.60038   4.24630   5.30990
  Beta virt. eigenvalues --    5.30990   5.39857   6.58249
          Condensed to atoms (all electrons):
              1          2
     1  H    0.287750   0.212250
     2  H    0.212250   0.287750
 Mulliken atomic charges:
              1
     1  H    0.500000
     2  H    0.500000
 Sum of Mulliken atomic charges =   1.00000
 Mulliken charges with hydrogens summed into heavy atoms:
              1
 Sum of Mulliken charges with hydrogens summed into heavy atoms =   1.00000
          Atomic-Atomic Spin Densities.
              1          2
     1  H    0.287750   0.212250
     2  H    0.212250   0.287750
 Mulliken atomic spin densities:
              1
     1  H    0.500000
     2  H    0.500000
 Sum of Mulliken atomic spin densities =   1.00000
 Electronic spatial extent (au):  <R**2>=              1.6717
 Charge=              1.0000 electrons
 Dipole moment (field-independent basis, Debye):
    X=              0.0000    Y=              0.0000    Z=              0.0000  Tot=              0.0000
 Quadrupole moment (field-independent basis, Debye-Ang):
   XX=             -0.6718   YY=             -0.6718   ZZ=              0.2719
   XY=              0.0000   XZ=              0.0000   YZ=              0.0000
 Traceless Quadrupole moment (field-independent basis, Debye-Ang):
   XX=             -0.3146   YY=             -0.3146   ZZ=              0.6292
   XY=              0.0000   XZ=              0.0000   YZ=              0.0000
 Octapole moment (field-independent basis, Debye-Ang**2):
  XXX=              0.0000  YYY=              0.0000  ZZZ=              0.0000  XYY=              0.0000
  XXY=              0.0000  XXZ=              0.0000  XZZ=              0.0000  YZZ=              0.0000
  YYZ=              0.0000  XYZ=              0.0000
 Hexadecapole moment (field-independent basis, Debye-Ang**3):
 XXXX=             -0.3842 YYYY=             -0.3842 ZZZZ=             -0.4196 XXXY=              0.0000
 XXXZ=              0.0000 YYYX=              0.0000 YYYZ=              0.0000 ZZZX=              0.0000
 ZZZY=              0.0000 XXYY=             -0.1281 XXZZ=             -0.1550 YYZZ=             -0.1550
 XXYZ=              0.0000 YYXZ=              0.0000 ZZXY=              0.0000
 N-N= 7.559674408429D-01 E-N=-2.116553600147D+00  KE= 8.040679657132D-01
 Symmetry AG   KE= 8.040679657132D-01
 Symmetry B1G  KE=-7.338478702604D-53
 Symmetry B2G  KE= 6.029952442734D-33
 Symmetry B3G  KE= 6.029952442734D-33
 Symmetry AU   KE= 8.523395094347D-69
 Symmetry B1U  KE= 6.693659096959D-31
 Symmetry B2U  KE= 1.148439576305D-34
 Symmetry B3U  KE= 1.148439576305D-34
 1\1\GINC-IAH\SP\UCCSD(T)-FC\CC-pVTZ\H2(1+,2)\CALCUSER\26-Feb-2024\0\\#
 N CCSD(T)/cc-pVTZ SP Geom=Connectivity\\H2+\\1,2\H\H,1,0.7\\Version=EM
 64L-G09RevB.01\State=2-SGG\HF=-0.5565182\MP2=-0.5565182\MP3=-0.5565182
 \MP4D=-0.5565182\MP4DQ=-0.5565182\MP4SDQ=-0.5565182\CCSD=-0.5565182\CC
 SD(T)=-0.5565182\S2=0.75\S2-1=0.\S2A=0.75\RMSD=2.863e-09\PG=D*H [C*(H1
 .H1)]\\@


 IT IS THE GODS' CUSTOM TO BRING LOW ALL THINGS OF SURPASSING GREATNESS.
     -- HERODOTUS
 IT IS THE LOFTY PINE THAT BY THE STORM IS OFTENER TOSSED;
 TOWERS FALL WITH HEAVIER CRASH WHICH HIGHER SOAR.
     -- HORACE
 THE BIGGER THEY COME, THE HARDER THEY FALL.
     -- BOB FITZSIMONS HEAVYWEIGHT CHAMPION, 1897-1899
 Job cpu time:  0 days  0 hours  0 minutes  0.4 seconds.
 File lengths (MBytes):  RWF=     19 Int=      0 D2E=      0 Chk=      1 Scr=      1
 Normal termination of Gaussian 09 at Mon Feb 26 14:04:13 2024.
